Program Version,EnergyPlus, Version 8.6.0-198c6a3cff, YMD=2022.06.24 16:18
1,5,Environment Title[],Latitude[deg],Longitude[deg],Time Zone[],Elevation[m]
2,6,Day of Simulation[],Month[],Day of Month[],DST Indicator[1=yes 0=no],Hour[],StartMinute[],EndMinute[],DayType
3,3,Cumulative Day of Simulation[],Month[],Day of Month[],DST Indicator[1=yes 0=no],DayType  ! When Daily Report Variables Requested
4,2,Cumulative Days of Simulation[],Month[]  ! When Monthly Report Variables Requested
5,1,Cumulative Days of Simulation[] ! When Run Period Report Variables Requested
6,1,Environment,Site Outdoor Air Drybulb Temperature [C] !TimeStep
7,1,Environment,Site Outdoor Air Relative Humidity [%] !TimeStep
8,1,Environment,Site Wind Speed [m/s] !TimeStep
9,1,Environment,Site Wind Direction [deg] !TimeStep
10,1,Environment,Site Diffuse Solar Radiation Rate per Area [W/m2] !TimeStep
11,1,Environment,Site Direct Solar Radiation Rate per Area [W/m2] !TimeStep
12,1,SPACE1-1,Zone People Occupant Count [] !TimeStep
337,1,SPACE1-1,Zone Air Temperature [C] !TimeStep
338,1,SPACE1-1,Zone Air Relative Humidity [%] !TimeStep
339,1,SPACE1-1,Zone Thermostat Heating Setpoint Temperature [C] !TimeStep
340,1,SPACE1-1,Zone Thermostat Cooling Setpoint Temperature [C] !TimeStep
562,1,Whole Building,Facility Total HVAC Electric Demand Power [W] !TimeStep
563,1,SPACE1-1 PEOPLE 1,Zone Thermal Comfort Fanger Model PMV [] !TimeStep
564,1,SPACE1-1 PEOPLE 1,Zone Thermal Comfort Fanger Model PPD [%] !TimeStep
565,1,SPACE1-1 PEOPLE 1,Zone Thermal Comfort Mean Radiant Temperature [C] !TimeStep
566,1,SPACE1-1 PEOPLE 1,Zone Thermal Comfort Clothing Value [clo] !TimeStep
726,1,SPACE1-1 IN NODE,System Node Temperature [C] !TimeStep
727,1,SPACE1-1 IN NODE,System Node Mass Flow Rate [kg/s] !TimeStep
728,1,VAV SYS 1 OUTLET NODE,System Node Temperature [C] !TimeStep
729,1,VAV SYS 1 OUTLET NODE,System Node Mass Flow Rate [kg/s] !TimeStep
End of Data Dictionary
1,Pittsburgh Allegheny Co Ap PA USA TMY3 WMO#=725205,  40.35, -79.92,  -5.00, 380.00
2,1, 1, 1, 0, 1, 0.00,15.00,Monday
6,1.8
7,95.25
8,4.1
9,265.0
10,0.0
11,0.0
12,0.0
339,20.0
340,20.0
563,-1.1269289841810917
564,31.757143003068735
565,18.99715464524551
566,0.7499999951999999
337,20.092520977712636
338,41.669619907299637
562,5683.861879933708
726,21.195054305726474
727,0.7392836830574425
728,18.000005026296998
729,3.564132996761641
2,1, 1, 1, 0, 1,15.00,30.00,Monday
6,3.6
7,95.5
8,4.1
9,240.0
10,0.0
11,0.0
12,0.0
339,20.0
340,20.0
563,-1.2867213094484396
564,39.587349647094949
565,18.72674473242688
566,0.7499999951999999
337,20.00343317186921
338,41.76421852467755
562,6310.062102989131
726,22.15612689851606
727,0.7392836830574426
728,18.0000033022814
729,3.564132996761641
2,1, 1, 1, 0, 1,30.00,45.00,Monday
6,5.4
7,95.75
8,4.1
9,215.0
10,0.0
11,0.0
12,0.0
339,20.0
340,20.0
563,-1.3015966114355533
564,40.35057962852542
565,18.712909705305277
566,0.7499999951999999
337,20.001195237034005
338,41.5431854022281
562,5255.638536779036
726,21.701152512949663
727,0.7392836830574426
728,17.965524480277794
729,3.373387412618989
2,1, 1, 1, 0, 1,45.00,60.00,Monday
6,7.2
7,96.0
8,4.1
9,190.0
10,0.0
11,0.0
12,0.0
339,20.0
340,20.0
563,-1.2989430253045867
564,40.21406074043449
565,18.74884902701763
566,0.7499999951999999
337,20.00034374899616
338,41.50694557949743
562,5163.24135871345
726,21.712331596984915
727,0.7392836830574426
728,17.988412773791148
729,3.3102348896375668
2,1, 1, 1, 0, 2, 0.00,15.00,Monday
6,7.2
7,96.0
8,4.35
9,197.5
10,0.0
11,0.0
12,0.0
339,20.0
340,20.0
563,-1.3004666993017638
564,40.29242989045157
565,18.734695440219423
566,0.7499999951999999
337,20.000118360290715
338,41.52263317229005
562,5227.403653139377
726,21.745705910936075
727,0.7392836830574426
728,18.007067059098107
729,3.3489123098763384
2,1, 1, 1, 0, 2,15.00,30.00,Monday
6,7.2
7,96.0
8,4.6
9,205.0
10,0.0
11,0.0
12,0.0
339,20.0
340,20.0
563,-1.301045053596283
564,40.32219073273369
565,18.72933091155895
566,0.7499999951999999
337,20.000045842445844
338,41.51231626002396
562,5216.821223272506
726,21.756417333759126
727,0.7392836830574426
728,17.99658549088099
729,3.330369346905841
2,1, 1, 1, 0, 2,30.00,45.00,Monday
6,7.2
7,96.0
8,4.85
9,212.5
10,0.0
11,0.0
12,0.0
339,20.0
340,20.0
563,-1.300990988567576
564,40.319408349179138
565,18.730373141804465
566,0.7499999951999999
337,20.00000909873034
338,41.51884245987087
562,5199.9682097732
726,21.758870481624528
727,0.7392836830574426
728,17.997402888596338
729,3.316316560888094
2,1, 1, 1, 0, 2,45.00,60.00,Monday
6,7.2
7,96.0
8,5.1
9,220.0
10,0.0
11,0.0
12,0.0
339,20.0
340,20.0
563,-1.3004575503716865
564,40.29195916652624
565,18.73465194297259
566,0.7499999951999999
337,20.000001242016177
338,41.52499514067455
562,5177.273630815123
726,21.75713171289209
727,0.7392836830574426
728,17.996950363406805
729,3.299779716677156
2,1, 1, 1, 0, 3, 0.00,15.00,Monday
6,7.2
7,96.0
8,4.975
9,220.0
10,0.0
11,0.0
12,0.0
339,20.0
340,20.0
563,-1.2996050308721657
564,40.248104172423079
565,18.74162461270018
566,0.7499999951999999
337,20.00000019845632
338,41.52716165979891
562,5144.7703778544255
726,21.74535809057845
727,0.7392836830574426
728,17.99665076917694
729,3.2816384228695369
2,1, 1, 1, 0, 3,15.00,30.00,Monday
6,7.2
7,96.0
8,4.85
9,220.0
10,0.0
11,0.0
12,0.0
339,20.0
340,20.0
563,-1.2986908634204873
564,40.20109597662716
565,18.749300358805873
566,0.7499999951999999
337,19.999998151159948
338,41.53108009966347
562,5108.04213083672
726,21.73264257029295
727,0.7392836830574426
728,17.996107379486504
729,3.2605662134408455
2,1, 1, 1, 0, 3,30.00,45.00,Monday
6,7.2
7,96.0
8,4.725
9,220.0
10,0.0
11,0.0
12,0.0
339,20.0
340,20.0
563,-1.2977752373483478
564,40.15403157422338
565,18.756906601283956
566,0.7499999951999999
337,19.9999977539465
338,41.53530594718175
562,5069.551654590663
726,21.720010028111305
727,0.7392836830574426
728,17.995852782373406
729,3.2381388899696716
2,1, 1, 1, 0, 3,45.00,60.00,Monday
6,7.2
7,96.0
8,4.6
9,220.0
10,0.0
11,0.0
12,0.0
339,20.0
340,20.0
563,-1.2969075613978869
564,40.10944928301802
565,18.764087871466449
566,0.7499999951999999
337,19.999998001633054
338,41.53882419004723
562,5032.0321489752305
726,21.70793806124944
727,0.7392836830574426
728,17.99593729314538
729,3.216206706301703
2,1, 1, 1, 0, 4, 0.00,15.00,Monday
6,7.325
7,95.25
8,4.725
9,225.0
10,0.0
11,0.0
12,0.0
339,20.0
340,20.0
563,-1.2955921225179697
564,40.041892783710618
565,18.774605678503286
566,0.7499999951999999
337,19.999997490076664
338,41.55387195419568
562,4983.338903255308
726,21.695020906490514
727,0.7392836830574426
728,17.994172224884918
729,3.1847675564751878
2,1, 1, 1, 0, 4,15.00,30.00,Monday
6,7.45
7,94.5
8,4.85
9,230.0
10,0.0
11,0.0
12,0.0
339,20.0
340,20.0
563,-1.2942655794406087
564,39.97380572068967
565,18.78517728948419
566,0.7499999951999999
337,19.999997206704248
338,41.56947728912257
562,4938.981052200515
726,21.68204183857453
727,0.7392836830574426
728,17.995048866356606
729,3.158146032095254
2,1, 1, 1, 0, 4,30.00,45.00,Monday
6,7.575
7,93.75
8,4.975
9,235.0
10,0.0
11,0.0
12,0.0
339,20.0
340,20.0
563,-1.292960790602179
564,39.906874292557507
565,18.795536277615797
566,0.7499999951999999
337,19.99999709790868
338,41.58526027293381
562,4897.512912762381
726,21.66935622640577
727,0.7392836830574426
728,17.995328985337744
729,3.133095534145337
2,1, 1, 1, 0, 4,45.00,60.00,Monday
6,7.7
7,93.0
8,5.1
9,240.0
10,0.0
11,0.0
12,0.0
339,20.0
340,20.0
563,-1.2916782945051296
564,39.84112431451181
565,18.80569622896608
566,0.7499999951999999
337,19.999996949993269
338,41.60128773517989
562,4858.585383485515
726,21.656938780745255
727,0.7392836830574426
728,17.995639419904824
729,3.1097682009169844
2,1, 1, 1, 0, 5, 0.00,15.00,Monday
6,7.7
7,93.0
8,5.1
9,240.0
10,0.0
11,0.0
12,0.0
339,20.0
340,20.0
563,-1.2909989030992418
564,39.806309099874869
565,18.81121998921845
566,0.7499999951999999
337,19.999997036122776
338,41.60645142783051
562,4836.544809130832
726,21.64941498103107
727,0.7392836830574426
728,17.99778470500704
729,3.0980139189570128
2,1, 1, 1, 0, 5,15.00,30.00,Monday
6,7.7
7,93.0
8,5.1
9,240.0
10,0.0
11,0.0
12,0.0
339,20.0
340,20.0
563,-1.2904524450997888
564,39.77831371664386
565,18.815621940622309
566,0.7499999951999999
337,19.99999706660722
338,41.61152906785407
562,4813.93003267626
726,21.643423389438025
727,0.7392836830574426
728,17.9975830076088
729,3.0851837253513159
2,1, 1, 1, 0, 5,30.00,45.00,Monday
6,7.7
7,93.0
8,5.1
9,240.0
10,0.0
11,0.0
12,0.0
339,20.0
340,20.0
563,-1.2899596640566307
564,39.75307413248262
565,18.819571538938655
566,0.7499999951999999
337,19.99999708936475
338,41.61656127094675
562,4795.975282502088
726,21.637986502215435
727,0.7392836830574426
728,17.99789759950443
729,3.0740525249350787
2,1, 1, 1, 0, 5,45.00,60.00,Monday
6,7.7
7,93.0
8,5.1
9,240.0
10,0.0
11,0.0
12,0.0
339,20.0
340,20.0
563,-1.2895232616149528
564,39.73072685955848
565,18.823043898693496
566,0.7499999951999999
337,19.999997136781496
338,41.62150418320398
562,4779.457918093845
726,21.633182354465249
727,0.7392836830574426
728,17.99801950772271
729,3.063582068221244
2,1, 1, 1, 0, 6, 0.00,15.00,Monday
6,7.7
7,93.0
8,5.225
9,240.0
10,0.0
11,0.0
12,0.0
339,20.0
340,20.0
563,-1.2891848421313837
564,39.713400119617109
565,18.825687452896628
566,0.7499999951999999
337,19.99999718599244
338,41.62636496034846
562,4766.900885748641
726,21.63154836616261
727,0.7392836830574426
728,17.99825113514216
729,3.0543591289136939
2,1, 1, 1, 0, 6,15.00,30.00,Monday
6,7.7
7,93.0
8,5.35
9,240.0
10,0.0
11,0.0
12,0.0
339,20.0
340,20.0
563,-1.2889146663347729
564,39.69956928846069
565,18.827754623438805
566,0.7499999951999999
337,19.99999723908245
338,41.63114758118652
562,4756.345014046287
726,21.630685782978966
727,0.7392836830574426
728,17.99845820650779
729,3.04624940951801
2,1, 1, 1, 0, 6,30.00,45.00,Monday
6,7.7
7,93.0
8,5.475
9,240.0
10,0.0
11,0.0
12,0.0
339,20.0
340,20.0
563,-1.2886980157340678
564,39.688479737326677
565,18.82937059209287
566,0.7499999951999999
337,19.999997298478787
338,41.63583884684574
562,4747.750966172128
726,21.630433204871499
727,0.7392836830574426
728,17.99868367425563
729,3.039349329899057
2,1, 1, 1, 0, 6,45.00,60.00,Monday
6,7.7
7,93.0
8,5.6
9,240.0
10,0.0
11,0.0
12,0.0
339,20.0
340,20.0
563,-1.288546340078041
564,39.68071666228415
565,18.830438562999708
566,0.7499999951999999
337,19.99999735948276
338,41.64043551711889
562,4741.05298116444
726,21.630962098091609
727,0.7392836830574426
728,17.99887941722403
729,3.03349774770402
2,1, 1, 1, 0, 7, 0.00,15.00,Monday
6,7.7
7,93.0
8,5.725
9,240.0
10,0.0
11,0.0
12,0.0
339,20.0
340,20.0
563,-1.669643194019408
564,60.12047890181778
565,18.831312449711459
566,0.6104920319896938
337,19.999993489597548
338,41.65052983081577
562,4500.61658135081
726,23.231467776952916
727,0.37329767618323048
728,17.748733653667029
729,1.7452682803403146
2,1, 1, 1, 0, 7,15.00,30.00,Monday
6,7.7
7,93.0
8,5.85
9,240.0
10,0.0
11,0.0
12,0.0
339,20.0
340,20.0
563,-1.6698837727015644
564,60.13344883409145
565,18.829028515058825
566,0.6104920319896938
337,19.999994859464665
338,41.66007568811372
562,4997.0856534042905
726,23.24436850770007
727,0.37329767618323048
728,17.999999615926666
729,1.7452682803403146
2,1, 1, 1, 0, 7,30.00,45.00,Monday
6,7.7
7,93.0
8,5.975
9,240.0
10,0.0
11,0.0
12,0.0
339,20.0
340,20.0
563,-1.6702072159234947
564,60.15088512416273
565,18.826121681027389
566,0.6104920319896938
337,19.9999958288311
338,41.667807508996478
562,5076.292052383012
726,23.25790892654399
727,0.37329767618323048
728,17.999999241394954
729,1.7452682803403146
2,1, 1, 1, 0, 7,45.00,60.00,Monday
6,7.7
7,93.0
8,6.1
9,240.0
10,0.0
11,0.0
12,0.0
339,20.0
340,20.0
563,-1.6704421039994928
564,60.163546842605878
565,18.8239764258437
566,0.6104920319896938
337,19.999995802768696
338,41.67516983510464
562,5102.254115480026
726,23.26825844458516
727,0.37329767618323048
728,17.999999095802026
729,1.7452682803403146
2,1, 1, 1, 0, 8, 0.00,15.00,Monday
6,7.7
7,93.0
8,6.1
9,242.5
10,0.0
11,0.0
12,0.0
339,20.0
340,20.0
563,-1.6705146769992519
564,60.16745879283615
565,18.822643119754628
566,0.6104920319896938
337,19.99999882068021
338,41.69241886475496
562,17547.766307397396
726,23.272153892080575
727,0.3732976761832304
728,17.99999983141809
729,1.7452682803403144
2,1, 1, 1, 0, 8,15.00,30.00,Monday
6,7.7
7,93.0
8,6.1
9,245.0
10,0.0
11,0.0
12,0.0
339,20.0
340,20.0
563,-1.6673139098233177
564,59.99487190659345
565,18.84660350891333
566,0.6104920319896938
337,19.999998338858178
338,41.708109410672729
562,14880.12409221001
726,23.191223411459199
727,0.37329767618323048
728,17.99999999523076
729,1.7452682803403146
2,1, 1, 1, 0, 8,30.00,45.00,Monday
6,7.7
7,93.0
8,6.1
9,247.5
10,0.0
11,0.0
12,0.0
339,20.0
340,20.0
563,-1.661884255434131
564,59.70185713064902
565,18.8878240052986
566,0.6104920319896938
337,19.999997955419596
338,41.721911452192077
562,13198.552405305774
726,23.074341701899884
727,0.37329767618323048
728,18.000000095140864
729,1.7452682803403146
2,1, 1, 1, 0, 8,45.00,60.00,Monday
6,7.7
7,93.0
8,6.1
9,250.0
10,10.5
11,0.0
12,0.0
339,20.0
340,20.0
563,-1.6533760945815204
564,59.24212198943023
565,18.95284321535742
566,0.6104920319896938
337,19.99999802269555
338,41.73672457988642
562,12064.51157887059
726,22.90453597810618
727,0.37329767618323048
728,17.999999871881223
729,1.7452682803403146
2,1, 1, 1, 0, 9, 0.00,15.00,Monday
6,7.7
7,93.0
8,6.374999999999999
9,250.0
10,15.75
11,0.0
12,11.0
339,20.0
340,20.0
563,-1.5694221170369914
564,54.679884776899978
565,19.586519442481515
566,0.6104920319896938
337,20.000023904355275
338,42.553962138073028
562,8431.647703150622
726,19.348616238976839
727,0.6454021176494306
728,17.96949631745977
729,2.637426883916129
2,1, 1, 1, 0, 9,15.00,30.00,Monday
6,7.7
7,93.0
8,6.65
9,250.0
10,21.0
11,0.0
12,11.0
339,20.0
340,20.0
563,-1.5348965684723344
564,52.79862174772435
565,19.815387868942414
566,0.6104920319896938
337,20.000057768870687
338,43.45364026917514
562,5360.720419588683
726,18.874081685520556
727,0.5889674638877083
728,18.00385320213611
729,2.4675955056578005
2,1, 1, 1, 0, 9,30.00,45.00,Monday
6,7.7
7,93.0
8,6.925000000000001
9,250.0
10,25.25
11,0.0
12,11.0
339,20.0
340,20.0
563,-1.5079138527888565
564,51.33020363116368
565,19.982865215277127
566,0.6104920319896938
337,20.000046147910916
338,44.090269874139959
562,4668.266824053504
726,18.539894859782735
727,0.5564217670392334
728,17.981744817353783
729,2.374105944669438
2,1, 1, 1, 0, 9,45.00,60.00,Monday
6,7.7
7,93.0
8,7.2
9,250.0
10,29.5
11,0.0
12,11.0
339,20.0
340,20.0
563,-1.4879606229024596
564,50.246577891004267
565,20.10779144641073
566,0.6104920319896938
337,20.00003129962195
338,44.598575132953047
562,3805.4472087522813
726,18.307012727743527
727,0.5450702999748528
728,17.99355255930319
729,2.3414981416359459
2,1, 1, 1, 0,10, 0.00,15.00,Monday
6,7.7
7,93.0
8,7.050000000000001
9,252.5
10,33.75
11,0.0
12,11.0
339,20.0
340,20.0
563,-1.4606732913086614
564,48.76921352111219
565,20.293645500859307
566,0.6104920319896938
337,20.00138597812026
338,44.884853276556679
562,2507.349934146819
726,18.032868256270097
727,0.7383609088994017
728,18.03268976047974
729,2.5098978543637004
2,1, 1, 1, 0,10,15.00,30.00,Monday
6,7.7
7,93.0
8,6.9
9,255.0
10,38.0
11,0.0
12,11.0
339,20.0
340,20.0
563,-1.4451250215144376
564,47.93040467823048
565,20.397793805090339
566,0.6104920319896938
337,20.001685455061634
338,45.17101068384569
562,2070.7629579815034
726,17.885262062774716
727,0.7328018456812673
728,17.884894340403613
729,2.4353253192268209
2,1, 1, 1, 0,10,30.00,45.00,Monday
6,7.7
7,93.0
8,6.749999999999999
9,257.5
10,43.5
11,0.0
12,11.0
339,20.0
340,20.0
563,-1.432340688089618
564,47.2426320996416
565,20.482254690349845
566,0.6104920319896938
337,20.00178853043265
338,45.46816873457208
562,1743.0317602445596
726,17.785467586128435
727,0.7346987480728294
728,17.78512309493021
729,2.3858052914175809
2,1, 1, 1, 0,10,45.00,60.00,Monday
6,7.7
7,93.0
8,6.6
9,260.0
10,49.0
11,0.0
12,11.0
339,20.0
340,20.0
563,-1.421369634642099
564,46.653945334824097
565,20.55271041326011
566,0.6104920319896938
337,20.001878867621615
338,45.74525880921062
562,1471.6422275675081
726,17.699246243096856
727,0.7353567755921709
728,17.698970198634677
729,2.345578240090557
2,1, 1, 1, 0,11, 0.00,15.00,Monday
6,7.7
7,93.0
8,6.475
9,260.0
10,54.5
11,0.0
12,11.0
339,20.0
340,20.0
563,-1.4087371160063834
564,45.978019243969857
565,20.63703429833232
566,0.6104920319896938
337,20.001966899111463
338,45.97989184444009
562,1206.4348452072034
726,17.598329982892598
727,0.7366344099864416
728,17.5951145388675
729,2.310019849109615
2,1, 1, 1, 0,11,15.00,30.00,Monday
6,7.7
7,93.0
8,6.35
9,260.0
10,60.0
11,0.0
12,11.0
339,20.0
340,20.0
563,-1.399729106308541
564,45.49736920000509
565,20.69519043533241
566,0.6104920319896938
337,20.0020516834938
338,46.185240301794227
562,1116.0971794813076
726,17.519698987216484
727,0.734878946578867
728,17.51938745681792
729,2.258867250509878
2,1, 1, 1, 0,11,30.00,45.00,Monday
6,7.7
7,93.0
8,6.225
9,260.0
10,63.75
11,0.0
12,11.0
339,20.0
340,20.0
563,-1.3925136731560708
564,45.1132195629852
565,20.741002040679594
566,0.6104920319896938
337,20.002145668942373
338,46.35905050504532
562,1084.2624777372705
726,17.46907118905206
727,0.7368979570442514
728,17.46529377379026
729,2.224987004480865
2,1, 1, 1, 0,11,45.00,60.00,Monday
6,7.7
7,93.0
8,6.1
9,260.0
10,67.5
11,0.0
12,11.0
339,20.0
340,20.0
563,-1.3863257084614707
564,44.78440172099831
565,20.78034300734247
566,0.6104920319896938
337,20.002226128575005
338,46.506989154041338
562,1054.4247310096252
726,17.4198290007872
727,0.7369343278414454
728,17.416236217539948
729,2.1928110960591788
2,1, 1, 1, 0,12, 0.00,15.00,Monday
6,7.7
7,93.0
8,6.1
9,257.5
10,71.25
11,0.0
12,8.8
339,20.0
340,20.0
563,-1.38720413952771
564,44.83104384737028
565,20.767406449438615
566,0.6104920319896938
337,20.002148130526167
338,46.55617311923256
562,964.4737034740658
726,17.600301478126345
727,0.733031341125845
728,17.595789430191929
729,2.0931590510373825
2,1, 1, 1, 0,12,15.00,30.00,Monday
6,7.7
7,93.0
8,6.1
9,255.0
10,75.0
11,0.0
12,8.8
339,20.0
340,20.0
563,-1.38474375646927
564,44.70043530536376
565,20.784028611238523
566,0.6104920319896938
337,20.00201424301086
338,46.61828988192296
562,960.7155334153363
726,17.598234348090906
727,0.7382633581159093
728,17.596066440341386
729,2.0889033998436346
2,1, 1, 1, 0,12,30.00,45.00,Monday
6,7.7
7,93.0
8,6.1
9,252.5
10,80.25
11,0.0
12,8.8
339,20.0
340,20.0
563,-1.3814421001324298
564,44.525319001548819
565,20.806530130482267
566,0.6104920319896938
337,20.002013316880089
338,46.67504502395066
562,941.904252000762
726,17.569263354305386
727,0.7373776089679794
728,17.566551935359077
729,2.067484311243265
2,1, 1, 1, 0,12,45.00,60.00,Monday
6,7.7
7,93.0
8,6.1
9,250.0
10,85.5
11,0.0
12,8.8
339,20.0
340,20.0
563,-1.377799783855964
564,44.332338341182808
565,20.83165321159706
566,0.6104920319896938
337,20.002101570319778
338,46.6967241408854
562,924.6008397118402
726,17.539953732749497
727,0.737382753007171
728,17.537312314331215
729,2.0476051598831055
2,1, 1, 1, 0,13, 0.00,15.00,Monday
6,7.8500000000000009
7,91.25
8,5.975
9,252.5
10,90.75
11,0.0
12,4.4
339,20.0
340,20.0
563,-1.3889243576545332
564,44.92241732141216
565,20.7466190582023
566,0.6104920319896938
337,20.002015671948884
338,46.48518447812561
562,756.0947903901024
726,17.95919232666962
727,0.7246937308209904
728,17.954124492275299
729,1.8440351870238876
2,1, 1, 1, 0,13,15.00,30.00,Monday
6,8.0
7,89.5
8,5.85
9,255.0
10,96.0
11,0.0
12,4.4
339,20.0
340,20.0
563,-1.3903609384079854
564,44.99875988864432
565,20.74474124015787
566,0.6104920319896938
337,20.001799506892167
338,46.28113943638185
562,771.6966204773795
726,17.998413929278159
727,0.7389784756572824
728,17.99940440059094
729,1.863724990238318
2,1, 1, 1, 0,13,30.00,45.00,Monday
6,8.15
7,87.75
8,5.725
9,257.5
10,93.75
11,0.0
12,4.4
339,20.0
340,20.0
563,-1.3920739553356139
564,45.089834264601709
565,20.74062697417559
566,0.6104920319896938
337,20.00183557740648
338,46.058892065848258
562,757.221873317378
726,17.99463119084552
727,0.736807339971868
728,17.993633465838735
729,1.8454639666415385
2,1, 1, 1, 0,13,45.00,60.00,Monday
6,8.3
7,86.0
8,5.6
9,260.0
10,91.5
11,0.0
12,4.4
339,20.0
340,20.0
563,-1.3932647971861112
564,45.15317302250403
565,20.740898583156615
566,0.6104920319896938
337,20.002078428581247
338,45.75050626203544
562,743.0718989890613
726,17.991466376465096
727,0.7367565981310207
728,17.989941057117563
729,1.827452887438425
2,1, 1, 1, 0,14, 0.00,15.00,Monday
6,8.15
7,86.0
8,5.85
9,260.0
10,89.25
11,0.0
12,8.8
339,20.0
340,20.0
563,-1.383806688996879
564,44.65071657282589
565,20.82494144439276
566,0.6104920319896938
337,20.012523302580996
338,45.52529988458497
562,887.4329050166104
726,17.581465100895519
727,0.7392836830574426
728,17.58052211951174
729,2.004307763868579
2,1, 1, 1, 0,14,15.00,30.00,Monday
6,8.0
7,86.0
8,6.1
9,260.0
10,87.0
11,0.0
12,8.8
339,20.0
340,20.0
563,-1.3803485318826379
564,44.467355895959837
565,20.84716923331785
566,0.6104920319896938
337,20.006149066204796
338,45.3027623551179
562,868.732476997263
726,17.519967436032397
727,0.7369934021923034
728,17.516396906959235
729,1.9822026146980397
2,1, 1, 1, 0,14,30.00,45.00,Monday
6,7.8500000000000009
7,86.0
8,6.35
9,260.0
10,85.0
11,0.0
12,8.8
339,20.0
340,20.0
563,-1.381665430825427
564,44.53715871569198
565,20.8546697647904
566,0.6104920319896938
337,20.003987151829283
338,45.0733509284787
562,875.8726846600975
726,17.529529676127127
727,0.7384190122341205
728,17.52740132668519
729,1.9906688661350143
2,1, 1, 1, 0,14,45.00,60.00,Monday
6,7.7
7,86.0
8,6.6
9,260.0
10,83.0
11,0.0
12,8.8
339,20.0
340,20.0
563,-1.3830814222871502
564,44.61224511497526
565,20.856341648091683
566,0.6104920319896938
337,20.003150799794044
338,44.888293449746679
562,881.7430363811669
726,17.52804450843886
727,0.7382432880223071
728,17.526617172142559
729,1.9976052462729848
2,1, 1, 1, 0,15, 0.00,15.00,Monday
6,7.575
7,86.0
8,6.749999999999999
9,262.5
10,81.0
11,0.0
12,11.0
339,20.0
340,20.0
563,-1.3762576745372047
564,44.250698206129658
565,20.916155798401844
566,0.6104920319896938
337,20.007933116698977
338,44.79960207656786
562,971.5412507001706
726,17.399662686497288
727,0.7392836830574426
728,17.398558701142155
729,2.101141270947412
2,1, 1, 1, 0,15,15.00,30.00,Monday
6,7.45
7,86.0
8,6.9
9,265.0
10,79.0
11,0.0
12,11.0
339,20.0
340,20.0
563,-1.3734761060183292
564,44.10354002264836
565,20.934768228876786
566,0.6104920319896938
337,20.004790034639183
338,44.669742283045199
562,958.7568862008835
726,17.357901689101685
727,0.7371708712268396
728,17.355086531715498
729,2.086682403668963
2,1, 1, 1, 0,15,30.00,45.00,Monday
6,7.325
7,86.0
8,7.050000000000001
9,267.5
10,71.75
11,0.0
12,11.0
339,20.0
340,20.0
563,-1.3759416581510545
564,44.23397296524672
565,20.925603908643148
566,0.6104920319896938
337,20.003768927631318
338,44.50569453822024
562,971.5489609040096
726,17.380925252229383
727,0.7383002430376194
728,17.37968653262915
729,2.101149964191615
2,1, 1, 1, 0,15,45.00,60.00,Monday
6,7.2
7,86.0
8,7.2
9,270.0
10,64.5
11,0.0
12,11.0
339,20.0
340,20.0
563,-1.3793857462454709
564,44.41634078070129
565,20.907790496157039
566,0.6104920319896938
337,20.00337404461865
338,44.35794933073856
562,985.7496593448581
726,17.40435619561296
727,0.7382735854187754
728,17.403683628791045
729,2.1171070777179739
2,1, 1, 1, 0,16, 0.00,15.00,Monday
6,7.050000000000001
7,85.0
8,7.325
9,270.0
10,57.25
11,0.0
12,11.0
339,20.0
340,20.0
563,-1.385259656575204
564,44.727813769120619
565,20.87063589921864
566,0.6104920319896938
337,20.004845367462179
338,44.15377717018856
562,1039.527093461226
726,17.56056799065007
727,0.7392836830574426
728,17.560147953710858
729,2.176588002545707
2,1, 1, 1, 0,16,15.00,30.00,Monday
6,6.9
7,84.0
8,7.45
9,270.0
10,50.0
11,0.0
12,11.0
339,20.0
340,20.0
563,-1.3904931189493098
564,45.005785806523089
565,20.837817535257757
566,0.6104920319896938
337,20.004034863987106
338,43.88124901211479
562,1061.0337592012393
726,17.597771032565519
727,0.7383037348224866
728,17.597325738663533
729,2.1999740558803175
2,1, 1, 1, 0,16,30.00,45.00,Monday
6,6.749999999999999
7,83.0
8,7.575
9,270.0
10,42.0
11,0.0
12,11.0
339,20.0
340,20.0
563,-1.3967772308372913
564,45.3401176698792
565,20.802819266652937
566,0.6104920319896938
337,20.003850585686548
338,43.559789195114237
562,1092.1024684797046
726,17.64726904953992
727,0.7385266548967365
728,17.647766073920214
729,2.233373033712703
2,1, 1, 1, 0,16,45.00,60.00,Monday
6,6.6
7,82.0
8,7.7
9,270.0
10,34.0
11,0.0
12,11.0
339,20.0
340,20.0
563,-1.4035384788314354
564,45.70048888485429
565,20.765459203019224
566,0.6104920319896938
337,20.00386414095507
338,43.203583777030448
562,1125.8458407766598
726,17.696776817660216
727,0.7384525841455761
728,17.697707021136855
729,2.2691526009772695
2,1, 1, 1, 0,17, 0.00,15.00,Monday
6,6.324999999999999
7,83.0
8,7.575
9,272.5
10,26.0
11,0.0
12,11.0
339,20.0
340,20.0
563,-1.4146062243406886
564,46.291792107479448
565,20.696743996582105
566,0.6104920319896938
337,20.006781734076847
338,43.00312912947856
562,1379.9273016538632
726,17.990055744507019
727,0.7392836830574426
728,17.990797878569507
729,2.3624955010087564
2,1, 1, 1, 0,17,15.00,30.00,Monday
6,6.05
7,84.0
8,7.45
9,275.0
10,18.0
11,0.0
12,11.0
339,20.0
340,20.0
563,-1.4221438929944089
564,46.695441517518577
565,20.644457931584875
566,0.6104920319896938
337,20.004458422846754
338,42.831605428203818
562,1717.4201017850648
726,18.003453495708663
727,0.7238356386939308
728,18.001453509494725
729,2.369697551533645
2,1, 1, 1, 0,17,30.00,45.00,Monday
6,5.775
7,85.0
8,7.325
9,277.5
10,13.5
11,0.0
12,11.0
339,20.0
340,20.0
563,-1.4292703760220258
564,47.077736324575138
565,20.60070122312825
566,0.6104920319896938
337,20.003707763053414
338,42.64175366815593
562,1890.2554427509826
726,18.000503560501526
727,0.7014521703735602
728,18.000126285283444
729,2.3701450938537129
2,1, 1, 1, 0,17,45.00,60.00,Monday
6,5.5
7,86.0
8,7.2
9,280.0
10,0.0
11,0.0
12,11.0
339,20.0
340,20.0
563,-1.438809780550292
564,47.59042657992712
565,20.537430533874017
566,0.6104920319896938
337,20.00337517424025
338,42.474264924655027
562,2137.103486197108
726,17.99942349421811
727,0.6729000559124863
728,17.998697194542776
729,2.3633052373912006
2,1, 1, 1, 0,18, 0.00,15.00,Monday
6,5.225
7,86.75
8,7.050000000000001
9,280.0
10,0.0
11,0.0
12,11.0
339,20.0
340,20.0
563,-1.4447985746771013
564,47.91281989877951
565,20.499086244463226
566,0.6104920319896938
337,20.00328183642911
338,42.31930781107508
562,2306.1397000499182
726,18.001639858550307
727,0.6557534332474672
728,18.000722578175649
729,2.366815704772863
2,1, 1, 1, 0,18,15.00,30.00,Monday
6,4.95
7,87.5
8,6.9
9,280.0
10,0.0
11,0.0
12,11.0
339,20.0
340,20.0
563,-1.4501183294675087
564,48.19952071907457
565,20.465423574291977
566,0.6104920319896938
337,20.003253939536049
338,42.16054623103431
562,2454.802493802754
726,18.001783181751656
727,0.6402075526264707
728,18.000910677663485
729,2.3712967097754138
2,1, 1, 1, 0,18,30.00,45.00,Monday
6,4.675000000000001
7,88.25
8,6.749999999999999
9,280.0
10,0.0
11,0.0
12,11.0
339,20.0
340,20.0
563,-1.4550661206962524
564,48.46643631862298
565,20.434645437368084
566,0.6104920319896938
337,20.003230782719734
338,42.00387656694986
562,2592.7325748956227
726,18.002039450138498
727,0.6260892211829005
728,18.001211617611906
729,2.3773258733697677
2,1, 1, 1, 0,18,45.00,60.00,Monday
6,4.4
7,89.0
8,6.6
9,280.0
10,0.0
11,0.0
12,11.0
339,20.0
340,20.0
563,-1.4597148118509343
564,48.71743610970102
565,20.406031413726564
566,0.6104920319896938
337,20.00321132217279
338,41.850954731262458
562,2723.527281418315
726,18.00221637659491
727,0.6129985957691088
728,18.00143031578904
729,2.3844788900114839
2,1, 1, 1, 0,19, 0.00,15.00,Monday
6,4.25
7,88.25
8,6.475
9,285.0
10,0.0
11,0.0
12,5.5
339,20.0
340,20.0
563,-1.5005782761225986
564,50.93154992289707
565,20.102740274647596
566,0.6104920319896938
337,20.00022078457733
338,41.54630862862686
562,1227.740806697899
726,18.850110052042518
727,0.4210178713698104
728,18.00804023067817
729,1.9716317197680807
2,1, 1, 1, 0,19,15.00,30.00,Monday
6,4.1
7,87.5
8,6.35
9,290.0
10,0.0
11,0.0
12,5.5
339,20.0
340,20.0
563,-1.518112712507862
564,51.88490331475603
565,19.9860246087052
566,0.6104920319896938
337,20.000114078579818
338,41.25921686493231
562,1435.396694093255
726,19.1430845957428
727,0.44041827348060338
728,18.00174774921735
729,2.0354074186860835
2,1, 1, 1, 0,19,30.00,45.00,Monday
6,3.9499999999999999
7,86.75
8,6.225
9,295.0
10,0.0
11,0.0
12,5.5
339,20.0
340,20.0
563,-1.531544402037587
564,52.61605887257892
565,19.896011017131543
566,0.6104920319896938
337,19.99999048724094
338,41.92073406654095
562,6397.61781223403
726,19.599028358418005
727,0.7392836830574425
728,18.00000745651835
729,3.564132996761641
2,1, 1, 1, 0,19,45.00,60.00,Monday
6,3.8
7,86.0
8,6.1
9,300.0
10,0.0
11,0.0
12,5.5
339,20.0
340,20.0
563,-1.5394372381307176
564,53.04595540192426
565,19.808052858113816
566,0.6104920319896938
337,20.00001384249014
338,42.14873662802441
562,6267.7228893919
726,19.701561531952906
727,0.7392836830574426
728,17.99999872052483
729,3.564132996761641
2,1, 1, 1, 0,20, 0.00,15.00,Monday
6,3.5249999999999996
7,86.75
8,5.975
9,300.0
10,0.0
11,0.0
12,1.1
339,20.0
340,20.0
563,-1.5802553130281643
564,55.27015164026
565,19.48621131892773
566,0.6104920319896938
337,20.00003045385546
338,42.21212606625426
562,6618.521329928275
726,20.450061085787185
727,0.7392836830574426
728,17.999990341841593
729,3.564132996761641
2,1, 1, 1, 0,20,15.00,30.00,Monday
6,3.25
7,87.5
8,5.85
9,300.0
10,0.0
11,0.0
12,1.1
339,20.0
340,20.0
563,-1.5988535409484939
564,56.28291716936392
565,19.341153703815963
566,0.6104920319896938
337,20.00000573527319
338,42.163856918158348
562,6514.233820819423
726,20.641446851621866
727,0.7392836830574426
728,18.000001402142169
729,3.564132996761641
2,1, 1, 1, 0,20,30.00,45.00,Monday
6,2.9750000000000007
7,88.25
8,5.725
9,300.0
10,0.0
11,0.0
12,1.1
339,20.0
340,20.0
563,-1.614129533621042
564,57.1138308979337
565,19.226172083387728
566,0.6104920319896938
337,20.000007023969137
338,42.14982044722076